

 Parallel Execution: Process Information
 ==============================================================================
 Rank   Node Name                              NodeID   MyNodeRank  NodeMaster
    0   DESKTOP-UH72M6J                           0          0          0
    1   DESKTOP-UH72M6J                           0          1         -1
 ==============================================================================


May use up to 3866MB of RAM as shared memory on node 0

 *******************************************************************************
 *                                                                             *
 *  --------------------------------                                           *
 *   Amsterdam Modeling Suite (AMS)              2019.305                      *
 *  --------------------------------                                           *
 *                                               r88018 2020-09-30             *
 *                                                                             *
 *                                                                             *
 *                              =================                              *
 *                              |               |                              *
 *                              |     A M S     |                              *
 *                              |               |                              *
 *                              =================                              *
 *                                                                             *
 *                                                                             *
 *   Online information and documentation:  https://www.scm.com/support/       *
 *   E-mail:  support@scm.com   info@scm.com                                   *
 *                                                                             *
 *   Scientific publications using AMS results must be properly referenced     *
 *   See the User Manuals (or the web site) for recommended citations          *
 *   The terms and conditions of the End User License Agreement apply to       *
 *   the use of AMS, https://www.scm.com/license-terms/                        *
 *                                                                             *
 *********************  x86_64_windows_intel / intelmpi  ***********************
 
 Licensed to: Prof. Thomas Heine (Student License) / University of Dresden / Dresden / GERMANY
 SCM User ID: u20324
  
 AMS 2019.305  RunTime: Feb14-2021 14:56:31  Nodes: 1  Procs: 2

 AMS jobname: ams
 AMS jobid  : 1892790875

 Start   directory: D:/project/COF-bph/monolayer/4R/SCC-DFTB/tmp..9500.0.noindex/
 Results directory: D:/project/COF-bph/monolayer/4R/SCC-DFTB/COF-bph.results/
 Scratch directory: C:/SCMTMP/amstmp_ams_kid0.1892790875/

 RNG seed: 892855440 1499559870 -1929286767 -1552458182 -2007398543 -1723129778 -89690131 -313345031
       ***************************
       *  GEOMETRY OPTIMIZATION  *
       ***************************

       nMin:  5 steps
    dtStart:  0.2500 fs
      dtMax:  1.0000 fs
       fInc:  1.1000
       fDec:  0.5000
 alphaStart:  0.1000
     fAlpha:  0.9900
Grad. conv.:  0.001000 Ha/Angstrom
 Opt. latt.:  T
 strainMass:  0.5000
Map at. to c  F
 
--------
Geometry
--------
Atoms
  Index Symbol   x (angstrom)   y (angstrom)   z (angstrom)
      1      C     5.39037534    16.85215958     1.85098003
      2      C     3.99923188    16.80566726     1.76358933
      3      C    11.27200192    11.23702386     2.05601990
      4      C    11.32689474     9.84481066     2.01163696
      5      C    11.65109235    22.69899680     2.30162985
      6      C    16.79704303    16.92355049     2.26577323
      7      C    11.64055976    24.07801800     2.26584800
      8      C    18.19290095    16.94756274     2.30148207
      9      C    13.68751665    13.50966111     3.30320234
     10      C    12.38267812    14.11280137     3.30102108
     11      C    24.76763387    15.56240755     2.84783113
     12      C     8.38651988    20.36098836     2.98290817
     13      C    11.75427932     4.83729937     2.73899376
     14      C    11.89526262     3.46029426     2.59584972
     15      C     7.45689191    19.34836019     2.96289455
     16      C    11.12981505    13.43801410     3.31787745
     17      C    14.62435527    14.51611944     3.31406529
     18      C    14.46351966    19.60867448     3.60223495
     19      C    23.37896642    15.44859460     2.80016910
     20      C     7.55777121    16.80667683     3.19176478
     21      C     8.14643992    18.10278321     3.15207692
     22      C     8.25254912    15.56993785     3.28113160
     23      C     6.04184909    16.75776245     3.09831359
     24      C    11.17759925    11.91921461     3.28681426
     25      C     7.59606260    14.25851180     3.28431310
     26      C     9.85238864    14.06040305     3.32919372
     27      C     9.68233856    19.78005747     3.20991738
     28      C     3.20856603    16.69511383     2.92899018
     29      C    13.93100367    15.77599188     3.31539127
     30      C    13.48036611    20.54293035     3.58354247
     31      C    13.81442865    18.30825996     3.42685155
     32      C     8.58298416    13.32802054     3.31559224
     33      C    14.51607141    17.07456936     3.38583745
     34      C    12.21798074    19.82710146     3.36688057
     35      C    11.25499767     9.08255961     3.19970092
     36      C    10.93720066    20.46825323     3.28168998
     37      C     0.98863906    17.22776511     3.59181561
     38      C    25.38852579    16.77220374     3.23113987
     39      C    11.11592484     2.55780597     3.35644520
     40      C    10.82294039     5.38430979     3.64994967
     41      H    16.14836519    17.51991800     5.56169451
     42      C    10.64775270     6.84527426     3.78010999
     43      C    10.89808232    21.95749848     3.26047645
     44      C    16.03452361    17.11926080     3.43493640
     45      C    22.54523424    16.53615757     3.13822485
     46      C    21.07467543    16.38983539     3.10821710
     47      C    10.87408787    24.85058586     3.23079042
     48      C    10.19274111     3.10656776     4.27447315
     49      C    10.04888131     4.48656035     4.41695751
     50      C    24.55062401    17.86547043     3.55180365
     51      C    18.87131173    17.18704144     3.51791357
     52      C    23.16355481    17.75117789     3.50795932
     53      C    11.13498282    11.15945780     4.47283116
     54      C     3.85870771    16.57988844     4.18014598
     55      C    11.16981065     9.76318940     4.43681729
     56      C     5.25251218    16.60990549     4.25629935
     57      C    10.11478965    22.70263745     4.19220169
     58      C    16.71803867    17.36027642     4.64530289
     59      C    10.10488640    24.08172687     4.18840947
     60      C    18.11128975    17.41713722     4.68568109
     61      N     9.61597391    15.41327316     3.31774849
     62      N    12.58522703    15.47771734     3.30300438
     63      N     9.48444430    18.41832033     3.28949199
     64      N     1.80200622    16.61511336     2.78966919
     65      N    12.45154589    18.48013206     3.29905542
     66      N    11.37202249     7.67751405     3.09957489
     67      N    10.81631645    26.18867305     3.31737419
     68      N    20.28147386    17.29961512     3.57699035
     69      H    13.43169508     1.11793473     2.98319730
     70      H    18.61910173    17.60493245     5.63162247
     71      H     5.98377982    16.95402769     0.94143259
     72      H     3.51394054    16.88676586     0.79106665
     73      H    11.31332024    11.80789797     1.12734618
     74      H    11.39574138     9.33489975     1.05067750
     75      H    12.22144043    22.15824535     1.54332109
     76      H    16.29060076    16.74699385     1.31586150
     77      H    12.20693656    24.57787086     1.47933860
     78      H    18.75834071    16.80483252     1.37977266
     79      H     9.30881055    28.45317162     2.97357591
     80      H    13.89417442    12.44465640     3.30460110
     81      H     9.52749313    24.61837576     4.94214224
     82      H    12.60800097     3.08163041     1.86160528
     83      H    22.93327644    14.49505196     2.50977121
     84      H    15.52382753    19.79795294     3.74266618
     85      H     8.17227051    21.41314774     2.83017724
     86      H     6.38978772    19.46920728     2.81030955
     87      H     6.52721906    14.06461130     3.25765554
     88      H    15.70093416    14.38343315     3.32787592
     89      H    13.61586685    21.61071363     3.73085969
     90      H     9.54727569    22.17110947     4.95901188
     91      H    11.83869199    16.17272440     3.29781284
     92      H    10.22652570    17.73520220     3.44102748
     93      H     8.45532612    12.24890514     3.31835427
     94      H    20.68686717    15.43207757     2.68677442
     95      H    29.32027061    18.29129995     5.26114433
     96      H    26.88383151    18.08391196     5.12931758
     97      H     9.32571581     4.87424926     5.13773796
     98      H    13.57964968    28.95736620     2.59781298
     99      H    24.98804995    18.82730437     3.82367668
    100      C    11.61841419    27.02639630     2.44123649
    101      H    11.07423784    11.66780721     5.43624174
    102      H    11.15370630     9.20293035     5.37270592
    103      H     3.27723405    16.44369219     5.09301654
    104      H     5.73737394    16.51933483     5.22926662
    105      C    11.26488801     1.07898617     3.17571358
    106      C    10.14600601     0.21673546     3.18330044
    107      C    10.19580921    29.08811132     2.97025124
    108      C    11.46156683    28.51540501     2.74561074
    109      C    12.57991919    29.36842273     2.75446241
    110      C    12.53391549     0.49774045     2.96541970
    111      H     9.14318438     0.62294178     3.32750488
    112      C    26.87814064    16.89098751     3.30966856
    113      C    27.72038774    16.28208433     2.35052729
    114      C    29.10666713    16.39143540     2.43251664
    115      C    29.71895540    17.11651938     3.47941578
    116      C    28.87974785    17.72776240     4.43606265
    117      C    27.49315679    17.61610086     4.35490264
    118      H    27.28647270    15.73098471     1.51460567
    119      H    29.72879924    15.91515608     1.67378112
    120      H    22.54577636    18.61346349     3.76100439
    121      H    12.69534210    26.75572684     2.49107525
    122      H     9.58555769     2.44972527     4.89891012
    123      H    12.36484424     5.50640530     2.13133325
    124      H     9.83765015     7.18734049     4.46808264
    125      H     1.35463733    17.89883847     4.40537945
    126      H    25.37331098    14.68781092     2.60702410
 
Lattice vectors (angstrom)
      1    30.19736874     0.01533746     0.00000000
      2    -0.09331380    30.24336096     0.00000000
 
Unit cell area (angstrom^2)       913.27135
 
Total System Charge             0.00000
Bonding info available!
 
 
-------------------------
DFTB Engine configuration
-------------------------
DFTB Resources dir                     C:/ADF2019.305/atomicdata/DFTB/DFTB.org/3ob-3-1
 
SCC convergence enabled.
Maximum SCC cycles                       500
SCC charge convergence                   0.000000010000
SCC charge mixing                        0.150000000000
DIIS max dimension                       20
Adaptive SCC charge mixing             T
Adaptive SCC charge mixing             T
Adaptive SCC mixing strategy              3
Spin polarization                      F
Orbital-dependent SCC                  F
Orbital fill strategy                  Fermi
Fermi temperature (kelvin)                     300.0000
Use of symmetry                        T
Radial function extrapolation method   Auto

 Settings for Grimme D3 dispersion correction

      damping                        BJ
      s6                          1.000
      s8                          0.588
      a1                          0.572
      a2                          3.611

 Other (technical) parameters

      alpha                      14.000
      version                         4
 

---------------------
Periodic DFTB options
---------------------
 kpoints config
 grid method with params
Assume insulator                        F
Ewald tolerance                    1.00E-10
Ewald range factor                  2.00

 
Relaxing 378 degrees of freedom with FIRE.
Also relaxing lattice degrees of freedom.

Number of basis functions:          366
Number of k-points:                   1

Optimized geometry:
 
--------
Geometry
--------
Atoms
  Index Symbol   x (angstrom)   y (angstrom)   z (angstrom)
      1      C     5.35687823    16.78904769     1.84000013
      2      C     3.97143044    16.73306860     1.72429882
      3      C    11.21415353    11.17465939     2.03793733
      4      C    11.27713123     9.78806336     1.96206425
      5      C    11.54805277    22.53104239     2.29479230
      6      C    16.68777458    16.63844540     2.32803729
      7      C    11.48123041    23.92132232     2.26431877
      8      C    18.07912447    16.68353452     2.38003790
      9      C    13.56935232    13.37472479     3.25451119
     10      C    12.27408609    13.98793532     3.28573725
     11      C    24.57678288    15.46015672     2.76117264
     12      C     8.32086302    20.22082778     3.01128953
     13      C    11.73811225     4.79338432     2.72994801
     14      C    11.87491653     3.42027561     2.58240725
     15      C     7.38562505    19.21443318     2.99330036
     16      C    11.02798065    13.32416396     3.33275333
     17      C    14.51272938    14.37436904     3.26801721
     18      C    14.36296618    19.43806752     3.57074333
     19      C    23.19143349    15.35369195     2.70794671
     20      C     7.48071674    16.68692587     3.20124291
     21      C     8.07429566    17.96772801     3.14605985
     22      C     8.17650516    15.46317283     3.31424864
     23      C     5.98083888    16.64198425     3.09005664
     24      C    11.06433271    11.82021618     3.27633022
     25      C     7.51669494    14.16019744     3.33523022
     26      C     9.76653670    13.95755612     3.37164389
     27      C     9.61423295    19.62494598     3.18883574
     28      C     3.16777143    16.57934835     2.86985354
     29      C    13.82527859    15.63258960     3.30153113
     30      C    13.38285785    20.37482023     3.52699631
     31      C    13.70748010    18.13999941     3.44466037
     32      C     8.50169342    13.22794906     3.37324841
     33      C    14.41303122    16.91537990     3.39461856
     34      C    12.12179166    19.65568848     3.36162783
     35      C    11.16769093     9.00338721     3.12641784
     36      C    10.86109881    20.29619786     3.26171189
     37      C     0.97721236    17.04138835     3.59044021
     38      C    25.19396300    16.63093541     3.24169585
     39      C    11.05031265     2.52956592     3.29751458
     40      C    10.78244152     5.33361243     3.61239473
     41      H    15.98013947    17.57975167     5.52056721
     42      C    10.62532347     6.78681504     3.74802869
     43      C    10.81634435    21.78833511     3.24051187
     44      C    15.91303105    16.96175787     3.45421903
     45      C    22.37068937    16.41476161     3.13173764
     46      C    20.90872650    16.28734740     3.10113724
     47      C    10.66769060    24.61355238     3.18472260
     48      C    10.09486797     3.07121810     4.17932028
     49      C     9.96906776     4.44659682     4.34083605
     50      C    24.36908910    17.69637097     3.65410073
     51      C    18.73255555    17.05457507     3.57191124
     52      C    22.98604900    17.59223498     3.59803871
     53      C    10.96640221    11.03909515     4.43865420
     54      C     3.79036199    16.43445240     4.12587442
     55      C    11.01564826     9.64769699     4.37088927
     56      C     5.17949650    16.45284199     4.22683605
     57      C    10.00837417    22.48763270     4.15718815
     58      C    16.56966115    17.33533697     4.63941503
     59      C     9.92056028    23.87334234     4.12179713
     60      C    17.95825052    17.39297931     4.69806998
     61      N     9.53984198    15.31095218     3.34921692
     62      N    12.47885690    15.34890345     3.30579618
     63      N     9.41462471    18.26478455     3.25360389
     64      N     1.76626005    16.49948687     2.71726713
     65      N    12.34762195    18.30230785     3.33196572
     66      N    11.29695210     7.60448096     3.00050254
     67      N    10.51632626    26.01489440     3.17284639
     68      N    20.13705325    17.17474857     3.64392914
     69      H    13.31915192     1.11475184     2.75116761
     70      H    18.45479527    17.66741782     5.62565208
     71      H     5.96925652    16.92643758     0.95136619
     72      H     3.49957027    16.83989273     0.75045421
     73      H    11.28596887    11.77133282     1.13134013
     74      H    11.38470968     9.29737314     0.99789036
     75      H    12.15841207    22.00708912     1.56161349
     76      H    16.19148801    16.36716947     1.39817517
     77      H    12.03127412    24.47389008     1.50532858
     78      H    18.66585274    16.46275043     1.49066663
     79      H     9.23266808    28.19806721     3.29458670
     80      H    13.74832073    12.30773277     3.23752073
     81      H     9.29658534    24.40053015     4.83944826
     82      H    12.61335516     3.02739863     1.88636822
     83      H    22.73200892    14.43340600     2.34956059
     84      H    15.42768775    19.60701296     3.68225013
     85      H     8.12833472    21.27906220     2.89755015
     86      H     6.31517845    19.32191762     2.87764694
     87      H     6.44635859    13.99013725     3.31114402
     88      H    15.58829032    14.25455378     3.26348643
     89      H    13.50252942    21.44849790     3.61427568
     90      H     9.45080580    21.93135483     4.90825609
     91      H    11.73787995    16.04787639     3.33644208
     92      H    10.15532866    17.57465849     3.37125685
     93      H     8.39230695    12.14941314     3.38709038
     94      H    20.50236868    15.37003229     2.61998292
     95      H    29.12301470    18.18116080     5.21325335
     96      H    26.66564319    18.01990755     5.06524427
     97      H     9.22961655     4.84565525     5.03410928
     98      H    13.44909821    28.67496359     2.58038275
     99      H    24.82230917    18.62119508     4.00560990
    100      C    11.51576160    26.80115916     2.92076947
    101      H    10.86100491    11.52903291     5.40472465
    102      H    10.96603043     9.05718542     5.28365607
    103      H     3.18259847    16.28222737     5.01548581
    104      H     5.65228498    16.33043237     5.19915140
    105      C    11.19095258     1.06455808     3.13861701
    106      C    10.07690746     0.21346865     3.28076101
    107      C    10.09951459    28.84525300     3.17798219
    108      C    11.35823682    28.26000590     2.93845604
    109      C    12.46765687    29.10863158     2.76854382
    110      C    12.44183435     0.48040494     2.86094288
    111      H     9.09381425     0.64266099     3.46447577
    112      C    26.66847310    16.73750905     3.32206812
    113      C    27.49682215    16.06875376     2.39888929
    114      C    28.87954354    16.16775243     2.47697083
    115      C    29.49051999    16.92902712     3.49190073
    116      C    28.66606100    17.59287394     4.41857177
    117      C    27.28163714    17.50553425     4.33053155
    118      H    27.04619526    15.48293791     1.60009110
    119      H    29.50835168    15.65624890     1.75140973
    120      H    22.36002223    18.42388764     3.91414959
    121      H    12.54283253    26.41274102     2.74039026
    122      H     9.45916816     2.40468857     4.75856145
    123      H    12.36811633     5.47251024     2.15932950
    124      H     9.87821446     7.13987245     4.49356093
    125      H     1.36797587    17.63474279     4.44698081
    126      H    25.19030979    14.61660421     2.45133241
 
Lattice vectors (angstrom)
      1    29.97270603    -0.00560519     0.00000000
      2    -0.11346754    30.00877371     0.00000000
 
Unit cell area (angstrom^2)       899.44352
 
Total System Charge             0.00000
Bonding info available!
 
Performing a single point calculation on the final geometry ...

 Nr. of cells for integrals           9
------------------------
DFTB Database file paths
------------------------
C:/ADF2019.305/atomicdata/DFTB/DFTB.org/3ob-3-1/metainfo.yaml
C:/ADF2019.305/atomicdata/DFTB/DFTB.org/3ob-3-1/additional_parameters.yaml
C:/ADF2019.305/atomicdata/DFTB/DFTB.org/3ob-3-1/additional_parameters.yaml
C:/ADF2019.305/atomicdata/DFTB/DFTB.org/3ob-3-1/C-C.skf
C:/ADF2019.305/atomicdata/DFTB/DFTB.org/3ob-3-1/C.yaml
C:/ADF2019.305/atomicdata/DFTB/DFTB.org/3ob-3-1/H-H.skf
C:/ADF2019.305/atomicdata/DFTB/DFTB.org/3ob-3-1/H.yaml
C:/ADF2019.305/atomicdata/DFTB/DFTB.org/3ob-3-1/N-N.skf
C:/ADF2019.305/atomicdata/DFTB/DFTB.org/3ob-3-1/N.yaml
C:/ADF2019.305/atomicdata/DFTB/DFTB.org/3ob-3-1/C-C.skf
C:/ADF2019.305/atomicdata/DFTB/DFTB.org/3ob-3-1/C-H.skf
C:/ADF2019.305/atomicdata/DFTB/DFTB.org/3ob-3-1/C-N.skf
C:/ADF2019.305/atomicdata/DFTB/DFTB.org/3ob-3-1/H-C.skf
C:/ADF2019.305/atomicdata/DFTB/DFTB.org/3ob-3-1/H-H.skf
C:/ADF2019.305/atomicdata/DFTB/DFTB.org/3ob-3-1/H-N.skf
C:/ADF2019.305/atomicdata/DFTB/DFTB.org/3ob-3-1/N-C.skf
C:/ADF2019.305/atomicdata/DFTB/DFTB.org/3ob-3-1/N-H.skf
C:/ADF2019.305/atomicdata/DFTB/DFTB.org/3ob-3-1/N-N.skf

 * Reference

M. Gaus, A. Goez, M. Elstner
"Parametrization and Benchmark of DFTB3 for Organic Molecules"
J. Chem. Theory Comput. 2013, 9 (1), pp 338-354.

M. Gaus, X. Lu, M. Elstner, Q. Cui
"Parameterization of DFTB3/3OB for Sulfur and Phosphorus for Chemical and Biological Applications"
J. Chem. Theory Comput. 2014, 10 (4), pp 1518-1537

X. Lu, M. Gaus, M. Elstner, Q. Cui
"Parametrization of DFTB3/3OB for Magnesium and Zinc for Chemical and Biological Applications"
J. Phys. Chem. B, 2015, 119, 1062-1082

M. Kubillus, T. Kubar, M. Gaus, J. Rezac, and M. Elstner
"Parameterization of the DFTB3 Method for Br, Ca, Cl, F, I, K, and Na in Organic and Biological Systems"
J. Chem. Theory Comput., 2015, 11, 332-342


Estimated upper bound for memory consumption:   10.574 MiB
SCC Cycle:   1, MaxQDiff:   0.000000006974, Energy:    -161.7454449937, Used mix:   0.150
 Evaluation was successful


    =====================
     CALCULATION RESULTS
    =====================

 Energy (hartree)         -159.65898586

 Gradients (hartree/bohr)
   Index   Atom            d/dx            d/dy            d/dz
       1      C   -0.0000465867   -0.0000570774   -0.0000501002
       2      C   -0.0000309284   -0.0000580438    0.0000193134
       3      C   -0.0000967409   -0.0000986930   -0.0000366166
       4      C   -0.0001545265    0.0000164109    0.0000598317
       5      C    0.0000239177    0.0001548616   -0.0000382045
       6      C   -0.0000210113    0.0001491102   -0.0000524810
       7      C    0.0000019441   -0.0000953130   -0.0000206634
       8      C    0.0000377064    0.0001507065   -0.0000867457
       9      C    0.0000243648    0.0000104682   -0.0000150827
      10      C   -0.0000766334   -0.0000190560    0.0000348541
      11      C   -0.0000141740   -0.0000769116    0.0000597431
      12      C   -0.0000534254    0.0000453200    0.0001272869
      13      C    0.0000711023   -0.0000482510   -0.0000395500
      14      C   -0.0000645674    0.0000615403    0.0000556996
      15      C   -0.0001207191   -0.0001012233    0.0000608112
      16      C    0.0000984466   -0.0000240884    0.0000813619
      17      C    0.0000401626    0.0000364609    0.0001077156
      18      C   -0.0004575391    0.0002194784   -0.0000059516
      19      C    0.0000478097   -0.0000930553    0.0000491913
      20      C    0.0000237719    0.0001134495    0.0000178344
      21      C   -0.0000267291   -0.0000251416    0.0000571270
      22      C   -0.0001008224   -0.0001053581   -0.0000666655
      23      C   -0.0000316384   -0.0000464772   -0.0000392175
      24      C   -0.0001304875   -0.0001312329   -0.0000294366
      25      C    0.0003943464   -0.0001984431   -0.0000546346
      26      C   -0.0000561394    0.0000413050   -0.0000510053
      27      C    0.0000773664    0.0000559717   -0.0000384927
      28      C    0.0000306275    0.0000204654   -0.0000010714
      29      C   -0.0000390387    0.0000433025    0.0000228238
      30      C    0.0001441316   -0.0004209300    0.0000105274
      31      C    0.0000565531    0.0001017960    0.0000988980
      32      C   -0.0000971640    0.0003387015   -0.0000677114
      33      C   -0.0000235475   -0.0000802178   -0.0000512217
      34      C    0.0000462207   -0.0000380484    0.0000244759
      35      C   -0.0000536448    0.0000866541    0.0000114266
      36      C   -0.0000569350    0.0000081055   -0.0000568653
      37      C    0.0000101855   -0.0000589318   -0.0000249020
      38      C   -0.0000449641   -0.0000044258   -0.0000029406
      39      C   -0.0000286509   -0.0000151234   -0.0000720589
      40      C   -0.0001401453   -0.0000103423    0.0001083502
      41      H   -0.0000370027   -0.0003249694    0.0000945729
      42      C    0.0000735006    0.0001079705    0.0000143312
      43      C    0.0001508742    0.0001125212    0.0000076210
      44      C    0.0001393467    0.0000704809    0.0000328180
      45      C    0.0000137106   -0.0000245223   -0.0000193337
      46      C   -0.0000202945    0.0000226525   -0.0000474928
      47      C    0.0000420207   -0.0000048562   -0.0001154340
      48      C   -0.0000945756    0.0000015002    0.0001361954
      49      C    0.0000025820   -0.0000954612    0.0000712749
      50      C   -0.0000852351    0.0000777942   -0.0000887838
      51      C   -0.0000642955   -0.0000583983   -0.0000411053
      52      C   -0.0000000467    0.0000420567   -0.0001059410
      53      C    0.0000865518    0.0000047634    0.0000251955
      54      C    0.0000244359    0.0001452514    0.0000507316
      55      C    0.0000198632    0.0000711315    0.0001173607
      56      C    0.0000079247    0.0001307216   -0.0000616524
      57      C    0.0000822098    0.0001427374   -0.0000326543
      58      C    0.0001007850   -0.0001952402    0.0000909074
      59      C    0.0001148467   -0.0000345911   -0.0001165446
      60      C    0.0001251734   -0.0001917397    0.0000248564
      61      N   -0.0001083671   -0.0000715799   -0.0000152053
      62      N   -0.0000064945   -0.0001014347    0.0000671481
      63      N   -0.0000022247    0.0000924086    0.0000464647
      64      N   -0.0001163396    0.0000329493    0.0000437499
      65      N    0.0001376654    0.0000736025    0.0000515652
      66      N   -0.0000352208   -0.0001850544    0.0000508502
      67      N   -0.0003269987   -0.0002105341   -0.0001027459
      68      N    0.0000502235   -0.0000228057    0.0000018503
      69      H    0.0000668639    0.0000760093   -0.0000170496
      70      H    0.0000386098   -0.0003644258    0.0000871406
      71      H    0.0000247067   -0.0001263980   -0.0000187687
      72      H   -0.0000657263   -0.0001427419   -0.0000211001
      73      H   -0.0002439648   -0.0000222733    0.0000699296
      74      H   -0.0002596021   -0.0000617720    0.0001409365
      75      H    0.0001232227    0.0000165075   -0.0001096973
      76      H   -0.0000282444    0.0002975033   -0.0001984082
      77      H   -0.0000860878   -0.0000919008   -0.0001497681
      78      H    0.0000417777    0.0003048927   -0.0000893468
      79      H   -0.0001259739   -0.0001000712   -0.0001397305
      80      H   -0.0000406473    0.0001145861    0.0000500875
      81      H   -0.0000246952    0.0001524771   -0.0001891362
      82      H    0.0000288550    0.0000459564    0.0000099670
      83      H    0.0000221006   -0.0001844192    0.0001184508
      84      H    0.0000692701    0.0000655930    0.0000548581
      85      H   -0.0000325821   -0.0001273345    0.0001088197
      86      H    0.0000343826    0.0000094541    0.0000662878
      87      H   -0.0000735382   -0.0000997343   -0.0001109473
      88      H    0.0000208080   -0.0000052674    0.0000382853
      89      H    0.0000337194    0.0001550343    0.0000306349
      90      H    0.0001007663   -0.0000957793    0.0000992510
      91      H    0.0000762812    0.0000306808    0.0000017346
      92      H   -0.0000131511   -0.0000517284    0.0000234910
      93      H   -0.0000237561   -0.0001338543   -0.0000242640
      94      H   -0.0000039474    0.0000205252   -0.0000767152
      95      H    0.0000040080   -0.0000109080    0.0001187336
      96      H   -0.0000228313    0.0000691340    0.0000362030
      97      H   -0.0000775135   -0.0000166395    0.0001751483
      98      H    0.0002147652    0.0000555298    0.0000247945
      99      H    0.0000074773    0.0001274653   -0.0001142863
     100      C    0.0002119139    0.0001121757   -0.0000565639
     101      H    0.0001099613    0.0000857711    0.0001292083
     102      H    0.0000682832   -0.0000297881    0.0000887474
     103      H   -0.0000161919    0.0002230111    0.0000442267
     104      H    0.0000383435    0.0001763964    0.0000080473
     105      C   -0.0000454604    0.0000053246   -0.0000815072
     106      C    0.0000057747   -0.0001629073   -0.0002065124
     107      C   -0.0000040334    0.0001449097   -0.0001085185
     108      C    0.0000211053   -0.0000331326   -0.0000038295
     109      C    0.0000503365    0.0001107482   -0.0000309206
     110      C    0.0000615967   -0.0000800357   -0.0001162733
     111      H   -0.0001224630    0.0000578912   -0.0001479056
     112      C    0.0000210022    0.0000059088   -0.0000120798
     113      C    0.0000418167    0.0000107591   -0.0000588008
     114      C    0.0000536695   -0.0000120076   -0.0000540158
     115      C   -0.0000002236    0.0000014468    0.0000379381
     116      C    0.0000398747    0.0000098517    0.0000346605
     117      C    0.0000315610    0.0000481623    0.0000507977
     118      H   -0.0000130105    0.0000144901   -0.0000832479
     119      H    0.0000536920    0.0000181624   -0.0000700978
     120      H   -0.0000405143    0.0001370847   -0.0001931996
     121      H    0.0001057093   -0.0001128573    0.0000563283
     122      H   -0.0000115152   -0.0000476543    0.0000422234
     123      H   -0.0000258653    0.0001386546   -0.0000409449
     124      H    0.0000874576   -0.0000384156    0.0003087318
     125      H    0.0000119006   -0.0000113720    0.0000553963
     126      H    0.0000434089   -0.0001337569    0.0001263232

  Stress Tensor (hartree/bohr^2)
   Index               1               2
       1    0.0000000837    0.0000001768
       2    0.0000001768   -0.0000019157
 

 
--------------------
Energy Decomposition
--------------------
Total Energy (hartree)              -159.65898586
Total Energy (eV)                  -4344.54205700
Electronic Energy (hartree)         -161.80954004
Coulomb Energy (hartree)               0.06409504
Repulsion Energy (hartree)             2.29651571
Dispersion Energy (hartree)           -0.21005657
 
----------------------
Gradient Decomposition
----------------------
Total Gradients (hartree/bohr)
  Index   Atom            d/dx            d/dy            d/dz
      1      C   -0.0000465867   -0.0000570774   -0.0000501002
      2      C   -0.0000309284   -0.0000580438    0.0000193134
      3      C   -0.0000967409   -0.0000986930   -0.0000366166
      4      C   -0.0001545265    0.0000164109    0.0000598317
      5      C    0.0000239177    0.0001548616   -0.0000382045
      6      C   -0.0000210113    0.0001491102   -0.0000524810
      7      C    0.0000019441   -0.0000953130   -0.0000206634
      8      C    0.0000377064    0.0001507065   -0.0000867457
      9      C    0.0000243648    0.0000104682   -0.0000150827
     10      C   -0.0000766334   -0.0000190560    0.0000348541
     11      C   -0.0000141740   -0.0000769116    0.0000597431
     12      C   -0.0000534254    0.0000453200    0.0001272869
     13      C    0.0000711023   -0.0000482510   -0.0000395500
     14      C   -0.0000645674    0.0000615403    0.0000556996
     15      C   -0.0001207191   -0.0001012233    0.0000608112
     16      C    0.0000984466   -0.0000240884    0.0000813619
     17      C    0.0000401626    0.0000364609    0.0001077156
     18      C   -0.0004575391    0.0002194784   -0.0000059516
     19      C    0.0000478097   -0.0000930553    0.0000491913
     20      C    0.0000237719    0.0001134495    0.0000178344
     21      C   -0.0000267291   -0.0000251416    0.0000571270
     22      C   -0.0001008224   -0.0001053581   -0.0000666655
     23      C   -0.0000316384   -0.0000464772   -0.0000392175
     24      C   -0.0001304875   -0.0001312329   -0.0000294366
     25      C    0.0003943464   -0.0001984431   -0.0000546346
     26      C   -0.0000561394    0.0000413050   -0.0000510053
     27      C    0.0000773664    0.0000559717   -0.0000384927
     28      C    0.0000306275    0.0000204654   -0.0000010714
     29      C   -0.0000390387    0.0000433025    0.0000228238
     30      C    0.0001441316   -0.0004209300    0.0000105274
     31      C    0.0000565531    0.0001017960    0.0000988980
     32      C   -0.0000971640    0.0003387015   -0.0000677114
     33      C   -0.0000235475   -0.0000802178   -0.0000512217
     34      C    0.0000462207   -0.0000380484    0.0000244759
     35      C   -0.0000536448    0.0000866541    0.0000114266
     36      C   -0.0000569350    0.0000081055   -0.0000568653
     37      C    0.0000101855   -0.0000589318   -0.0000249020
     38      C   -0.0000449641   -0.0000044258   -0.0000029406
     39      C   -0.0000286509   -0.0000151234   -0.0000720589
     40      C   -0.0001401453   -0.0000103423    0.0001083502
     41      H   -0.0000370027   -0.0003249694    0.0000945729
     42      C    0.0000735006    0.0001079705    0.0000143312
     43      C    0.0001508742    0.0001125212    0.0000076210
     44      C    0.0001393467    0.0000704809    0.0000328180
     45      C    0.0000137106   -0.0000245223   -0.0000193337
     46      C   -0.0000202945    0.0000226525   -0.0000474928
     47      C    0.0000420207   -0.0000048562   -0.0001154340
     48      C   -0.0000945756    0.0000015002    0.0001361954
     49      C    0.0000025820   -0.0000954612    0.0000712749
     50      C   -0.0000852351    0.0000777942   -0.0000887838
     51      C   -0.0000642955   -0.0000583983   -0.0000411053
     52      C   -0.0000000467    0.0000420567   -0.0001059410
     53      C    0.0000865518    0.0000047634    0.0000251955
     54      C    0.0000244359    0.0001452514    0.0000507316
     55      C    0.0000198632    0.0000711315    0.0001173607
     56      C    0.0000079247    0.0001307216   -0.0000616524
     57      C    0.0000822098    0.0001427374   -0.0000326543
     58      C    0.0001007850   -0.0001952402    0.0000909074
     59      C    0.0001148467   -0.0000345911   -0.0001165446
     60      C    0.0001251734   -0.0001917397    0.0000248564
     61      N   -0.0001083671   -0.0000715799   -0.0000152053
     62      N   -0.0000064945   -0.0001014347    0.0000671481
     63      N   -0.0000022247    0.0000924086    0.0000464647
     64      N   -0.0001163396    0.0000329493    0.0000437499
     65      N    0.0001376654    0.0000736025    0.0000515652
     66      N   -0.0000352208   -0.0001850544    0.0000508502
     67      N   -0.0003269987   -0.0002105341   -0.0001027459
     68      N    0.0000502235   -0.0000228057    0.0000018503
     69      H    0.0000668639    0.0000760093   -0.0000170496
     70      H    0.0000386098   -0.0003644258    0.0000871406
     71      H    0.0000247067   -0.0001263980   -0.0000187687
     72      H   -0.0000657263   -0.0001427419   -0.0000211001
     73      H   -0.0002439648   -0.0000222733    0.0000699296
     74      H   -0.0002596021   -0.0000617720    0.0001409365
     75      H    0.0001232227    0.0000165075   -0.0001096973
     76      H   -0.0000282444    0.0002975033   -0.0001984082
     77      H   -0.0000860878   -0.0000919008   -0.0001497681
     78      H    0.0000417777    0.0003048927   -0.0000893468
     79      H   -0.0001259739   -0.0001000712   -0.0001397305
     80      H   -0.0000406473    0.0001145861    0.0000500875
     81      H   -0.0000246952    0.0001524771   -0.0001891362
     82      H    0.0000288550    0.0000459564    0.0000099670
     83      H    0.0000221006   -0.0001844192    0.0001184508
     84      H    0.0000692701    0.0000655930    0.0000548581
     85      H   -0.0000325821   -0.0001273345    0.0001088197
     86      H    0.0000343826    0.0000094541    0.0000662878
     87      H   -0.0000735382   -0.0000997343   -0.0001109473
     88      H    0.0000208080   -0.0000052674    0.0000382853
     89      H    0.0000337194    0.0001550343    0.0000306349
     90      H    0.0001007663   -0.0000957793    0.0000992510
     91      H    0.0000762812    0.0000306808    0.0000017346
     92      H   -0.0000131511   -0.0000517284    0.0000234910
     93      H   -0.0000237561   -0.0001338543   -0.0000242640
     94      H   -0.0000039474    0.0000205252   -0.0000767152
     95      H    0.0000040080   -0.0000109080    0.0001187336
     96      H   -0.0000228313    0.0000691340    0.0000362030
     97      H   -0.0000775135   -0.0000166395    0.0001751483
     98      H    0.0002147652    0.0000555298    0.0000247945
     99      H    0.0000074773    0.0001274653   -0.0001142863
    100      C    0.0002119139    0.0001121757   -0.0000565639
    101      H    0.0001099613    0.0000857711    0.0001292083
    102      H    0.0000682832   -0.0000297881    0.0000887474
    103      H   -0.0000161919    0.0002230111    0.0000442267
    104      H    0.0000383435    0.0001763964    0.0000080473
    105      C   -0.0000454604    0.0000053246   -0.0000815072
    106      C    0.0000057747   -0.0001629073   -0.0002065124
    107      C   -0.0000040334    0.0001449097   -0.0001085185
    108      C    0.0000211053   -0.0000331326   -0.0000038295
    109      C    0.0000503365    0.0001107482   -0.0000309206
    110      C    0.0000615967   -0.0000800357   -0.0001162733
    111      H   -0.0001224630    0.0000578912   -0.0001479056
    112      C    0.0000210022    0.0000059088   -0.0000120798
    113      C    0.0000418167    0.0000107591   -0.0000588008
    114      C    0.0000536695   -0.0000120076   -0.0000540158
    115      C   -0.0000002236    0.0000014468    0.0000379381
    116      C    0.0000398747    0.0000098517    0.0000346605
    117      C    0.0000315610    0.0000481623    0.0000507977
    118      H   -0.0000130105    0.0000144901   -0.0000832479
    119      H    0.0000536920    0.0000181624   -0.0000700978
    120      H   -0.0000405143    0.0001370847   -0.0001931996
    121      H    0.0001057093   -0.0001128573    0.0000563283
    122      H   -0.0000115152   -0.0000476543    0.0000422234
    123      H   -0.0000258653    0.0001386546   -0.0000409449
    124      H    0.0000874576   -0.0000384156    0.0003087318
    125      H    0.0000119006   -0.0000113720    0.0000553963
    126      H    0.0000434089   -0.0001337569    0.0001263232
 
Total Gradients (eV/angstrom)
  Index   Atom            d/dx            d/dy            d/dz
      1      C   -0.0023955817   -0.0029350367   -0.0025762544
      2      C   -0.0015904005   -0.0029847323    0.0009931360
      3      C   -0.0049746180   -0.0050749965   -0.0018829015
      4      C   -0.0079460733    0.0008438840    0.0030766705
      5      C    0.0012298999    0.0079633022   -0.0019645524
      6      C   -0.0010804465    0.0076675547   -0.0026986811
      7      C    0.0000999695   -0.0049011897   -0.0010625540
      8      C    0.0019389430    0.0077496408   -0.0044606440
      9      C    0.0012528878    0.0005382962   -0.0007755841
     10      C   -0.0039406472   -0.0009799002    0.0017922682
     11      C   -0.0007288582   -0.0039549535    0.0030721133
     12      C   -0.0027472460    0.0023304496    0.0065453552
     13      C    0.0036562273   -0.0024811679   -0.0020337446
     14      C   -0.0033201913    0.0031645298    0.0028641865
     15      C   -0.0062076237   -0.0052051132    0.0031270354
     16      C    0.0050623277   -0.0012386768    0.0041837954
     17      C    0.0020652419    0.0018748946    0.0055389564
     18      C   -0.0235276070    0.0112860341   -0.0003060412
     19      C    0.0024584725   -0.0047850978    0.0025295167
     20      C    0.0012224011    0.0058338067    0.0009170819
     21      C   -0.0013744662   -0.0012928327    0.0029375887
     22      C   -0.0051844944   -0.0054177334   -0.0034280773
     23      C   -0.0016269098   -0.0023899554   -0.0020166448
     24      C   -0.0067099352   -0.0067482648   -0.0015136888
     25      C    0.0202781068   -0.0102043524   -0.0028094252
     26      C   -0.0028868032    0.0021239867   -0.0026227961
     27      C    0.0039783395    0.0028781793   -0.0019793745
     28      C    0.0015749301    0.0010523748   -0.0000550918
     29      C   -0.0020074507    0.0022267065    0.0011736475
     30      C    0.0074115462   -0.0216450907    0.0005413393
     31      C    0.0029080780    0.0052345588    0.0050855371
     32      C   -0.0049963740    0.0174167314   -0.0034818613
     33      C   -0.0012108626   -0.0041249643   -0.0026339234
     34      C    0.0023767628   -0.0019565266    0.0012586021
     35      C   -0.0027585250    0.0044559341    0.0005875807
     36      C   -0.0029277177    0.0004168038   -0.0029241321
     37      C    0.0005237587   -0.0030303923   -0.0012805111
     38      C   -0.0023121466   -0.0002275851   -0.0001512095
     39      C   -0.0014732907   -0.0007776790   -0.0037054197
     40      C   -0.0072065585   -0.0005318210    0.0055715890
     41      H   -0.0019027576   -0.0167105968    0.0048631312
     42      C    0.0037795502    0.0055520658    0.0007369399
     43      C    0.0077582627    0.0057860747    0.0003918880
     44      C    0.0071654955    0.0036242732    0.0016875687
     45      C    0.0007050279   -0.0012609853   -0.0009941789
     46      C   -0.0010435852    0.0011648408   -0.0024421767
     47      C    0.0021607918   -0.0002497156   -0.0059358536
     48      C   -0.0048632700    0.0000771457    0.0070034475
     49      C    0.0001327703   -0.0049088102    0.0036651039
     50      C   -0.0043829673    0.0040003362   -0.0045654466
     51      C   -0.0033062087   -0.0030029630   -0.0021137201
     52      C   -0.0000023992    0.0021626433   -0.0054477070
     53      C    0.0044506706    0.0002449433    0.0012956044
     54      C    0.0012565457    0.0074691293    0.0026087252
     55      C    0.0010214087    0.0036577267    0.0060349289
     56      C    0.0004075040    0.0067219723   -0.0031702922
     57      C    0.0042273975    0.0073398513   -0.0016791495
     58      C    0.0051825734   -0.0100396520    0.0046746449
     59      C    0.0059056531   -0.0017787477   -0.0059929649
     60      C    0.0064366753   -0.0098596517    0.0012781680
     61      N   -0.0055724576   -0.0036807843   -0.0007818859
     62      N   -0.0003339626   -0.0052159838    0.0034528960
     63      N   -0.0001143968    0.0047518392    0.0023893088
     64      N   -0.0059824229    0.0016943199    0.0022497103
     65      N    0.0070790373    0.0037847948    0.0026515881
     66      N   -0.0018111253   -0.0095158790    0.0026148223
     67      N   -0.0168149470   -0.0108260970   -0.0052834076
     68      N    0.0025825954   -0.0011727138    0.0000951442
     69      H    0.0034382782    0.0039085544   -0.0008767241
     70      H    0.0019853966   -0.0187395285    0.0044809480
     71      H    0.0012704708   -0.0064996436   -0.0009651266
     72      H   -0.0033797827   -0.0073400812   -0.0010850128
     73      H   -0.0125451756   -0.0011453414    0.0035959265
     74      H   -0.0133492738   -0.0031764455    0.0072472458
     75      H    0.0063363667    0.0008488477   -0.0056408607
     76      H   -0.0014523860    0.0152982332   -0.0102025589
     77      H   -0.0044268102   -0.0047257270   -0.0077013847
     78      H    0.0021482965    0.0156782102   -0.0045943973
     79      H   -0.0064778368   -0.0051458667   -0.0071852315
     80      H   -0.0020901672    0.0058922555    0.0025756010
     81      H   -0.0012698759    0.0078406881   -0.0097257752
     82      H    0.0014837819    0.0023631748    0.0005125214
     83      H    0.0011364582   -0.0094832139    0.0060909839
     84      H    0.0035620106    0.0033729273    0.0028209180
     85      H   -0.0016754392   -0.0065478018    0.0055957325
     86      H    0.0017680244    0.0004861500    0.0034086577
     87      H   -0.0037814863   -0.0051285442   -0.0057051413
     88      H    0.0010699915   -0.0002708595    0.0019687088
     89      H    0.0017339225    0.0079721819    0.0015753118
     90      H    0.0051816096   -0.0049251684    0.0051036901
     91      H    0.0039225368    0.0015776694    0.0000891973
     92      H   -0.0006762592   -0.0026599799    0.0012079575
     93      H   -0.0012215883   -0.0068830665   -0.0012477029
     94      H   -0.0002029821    0.0010554493   -0.0039448557
     95      H    0.0002061019   -0.0005609099    0.0061055284
     96      H   -0.0011740347    0.0035550141    0.0018616319
     97      H   -0.0039859057   -0.0008556395    0.0090064847
     98      H    0.0110436707    0.0028554554    0.0012749861
     99      H    0.0003844986    0.0065545272   -0.0058768366
    100      C    0.0108970485    0.0057683068   -0.0029086319
    101      H    0.0056544357    0.0044105250    0.0066441594
    102      H    0.0035112653   -0.0015317638    0.0045635759
    103      H   -0.0008326209    0.0114676898    0.0022742279
    104      H    0.0019717014    0.0090706691    0.0004138069
    105      C   -0.0023376665    0.0002737996   -0.0041912689
    106      C    0.0002969459   -0.0083770289   -0.0106192944
    107      C   -0.0002074050    0.0074515546   -0.0055802461
    108      C    0.0010852794   -0.0017037482   -0.0001969215
    109      C    0.0025884045    0.0056949025   -0.0015900014
    110      C    0.0031674315   -0.0041156032   -0.0059790116
    111      H   -0.0062972977    0.0029768831   -0.0076056120
    112      C    0.0010799789    0.0003038428   -0.0006211658
    113      C    0.0021503022    0.0005532563   -0.0030236577
    114      C    0.0027597967   -0.0006174576   -0.0027776032
    115      C   -0.0000114971    0.0000743989    0.0019508563
    116      C    0.0020504410    0.0005065952    0.0017823151
    117      C    0.0016229332    0.0024766068    0.0026121231
    118      H   -0.0006690274    0.0007451084   -0.0042807766
    119      H    0.0027609540    0.0009339472   -0.0036045747
    120      H   -0.0020833280    0.0070491792   -0.0099347228
    121      H    0.0054357923   -0.0058033563    0.0028965196
    122      H   -0.0005921354   -0.0024504844    0.0021712144
    123      H   -0.0013300456    0.0071299077   -0.0021054725
    124      H    0.0044972484   -0.0019754088    0.0158756241
    125      H    0.0006119532   -0.0005847692    0.0028485921
    126      H    0.0022321755   -0.0068780561    0.0064957991
 
Electronic Gradients (hartree/bohr)
  Index   Atom            d/dx            d/dy            d/dz
      1      C    0.0533673303    0.0123516750   -0.0528771092
      2      C   -0.0463038329    0.0011471847   -0.0597846820
      3      C    0.0029495266    0.0538763700   -0.0551671086
      4      C    0.0108638375   -0.0490310346   -0.0569958916
      5      C    0.0388875185   -0.0485886197   -0.0400595578
      6      C   -0.0444620932   -0.0198177891   -0.0570563475
      7      C    0.0345789509    0.0532136096   -0.0407341458
      8      C    0.0531158496   -0.0168858767   -0.0503548278
      9      C   -0.0357653427   -0.1047459683   -0.0032939428
     10      C   -0.0097990107   -0.0577581255   -0.0048865921
     11      C    0.0571117053   -0.0456689666   -0.0205110680
     12      C    0.0381147955    0.1046010805   -0.0027338488
     13      C    0.0349361705    0.0620870550   -0.0303699795
     14      C    0.0468824878   -0.0480110072   -0.0397148258
     15      C   -0.1032094394   -0.0427021822   -0.0060925419
     16      C    0.0008941426   -0.0665034133    0.0036027804
     17      C    0.1023824313    0.0427099594   -0.0005968027
     18      C    0.1164313190   -0.0759828852    0.0066732352
     19      C   -0.0468085146   -0.0561940930   -0.0245047970
     20      C   -0.0652056587   -0.0030138369   -0.0008356395
     21      C   -0.0544594191   -0.0149847510   -0.0065732519
     22      C   -0.0654985583   -0.0201174298    0.0056620703
     23      C    0.0900382621    0.0027382938    0.0061614326
     24      C   -0.0042308453    0.0904040897    0.0051024686
     25      C   -0.1165328349    0.0755504340   -0.0027062012
     26      C   -0.0164872656   -0.0652858344    0.0069292865
     27      C    0.0129794998    0.0624301831   -0.0007209900
     28      C   -0.0131527384    0.0067595284    0.0050056928
     29      C    0.0589709883    0.0142169780   -0.0073599249
     30      C   -0.0827340065    0.1125372042   -0.0031368970
     31      C    0.0624125986    0.0165715844    0.0115304595
     32      C    0.0814466245   -0.1124760809    0.0051479681
     33      C    0.0619239984    0.0036072204    0.0015581953
     34      C    0.0114569352    0.0687273060    0.0027944486
     35      C   -0.0087154581   -0.0113464858    0.0054804251
     36      C    0.0002987005    0.0541278165   -0.0016970463
     37      C   -0.1194651712    0.0994801120    0.1620009322
     38      C    0.0703679919    0.0063156039    0.0031388909
     39      C    0.0061845760   -0.0697102507   -0.0090997071
     40      C   -0.0040022121    0.0614941790    0.0068044391
     41      H   -0.0488500810    0.0198732575    0.0724595967
     42      C   -0.1242346113   -0.1255496939    0.1413898306
     43      C    0.0060233299   -0.0796544579    0.0023020604
     44      C   -0.0876756767   -0.0030284697   -0.0028111458
     45      C   -0.0619015526   -0.0031278690   -0.0021569797
     46      C    0.1177522151   -0.1638593202   -0.1024149366
     47      C    0.0093023344    0.0100190736   -0.0018448020
     48      C   -0.0363662452   -0.0598841896    0.0284066119
     49      C   -0.0459078185    0.0429676664    0.0448372779
     50      C    0.0513053289    0.0533589994    0.0231726478
     51      C    0.0123316486   -0.0088326677   -0.0012551189
     52      C   -0.0588398729    0.0471657337    0.0177454588
     53      C   -0.0084587929    0.0424760073    0.0608805578
     54      C   -0.0547800565   -0.0051366716    0.0509283744
     55      C   -0.0065209302   -0.0529359859    0.0517746618
     56      C    0.0424401199   -0.0089525577    0.0616241363
     57      C   -0.0317409973   -0.0549491592    0.0434217512
     58      C   -0.0528339801    0.0142268486    0.0527676394
     59      C   -0.0410602737    0.0525767628    0.0382431243
     60      C    0.0486007730    0.0214132865    0.0542307447
     61      N    0.1600417262    0.1688502404    0.0017960171
     62      N   -0.0497771265    0.0461995432   -0.0009718057
     63      N    0.0482529475   -0.0461839614    0.0066639640
     64      N    0.0483355013   -0.1395275582   -0.2273517245
     65      N   -0.1570181073   -0.1678382311   -0.0193266114
     66      N    0.1763703870    0.0539289442   -0.1944053655
     67      N   -0.2572739936   -0.0442856905    0.0595341890
     68      N   -0.0437955959    0.2281923207    0.1394478845
     69      H    0.0721148697    0.0523758078   -0.0089583367
     70      H    0.0413617951    0.0223543164    0.0767202988
     71      H    0.0507173724    0.0111621710   -0.0730568365
     72      H   -0.0393329858    0.0086258995   -0.0804560817
     73      H    0.0056364642    0.0494668897   -0.0745864708
     74      H    0.0086503793   -0.0409754479   -0.0796230000
     75      H    0.0502335320   -0.0433153252   -0.0600949554
     76      H   -0.0410075390   -0.0219211878   -0.0763574870
     77      H    0.0449984312    0.0454038816   -0.0625334858
     78      H    0.0483594309   -0.0176899272   -0.0731250849
     79      H   -0.0713082584   -0.0539212666    0.0094377416
     80      H    0.0151293980   -0.0924996285   -0.0014232415
     81      H   -0.0515831013    0.0440256881    0.0590743099
     82      H    0.0606680638   -0.0323911386   -0.0572391190
     83      H   -0.0373913763   -0.0751638037   -0.0290533767
     84      H    0.0909614511    0.0141764473    0.0095214921
     85      H   -0.0164759274    0.0920588803   -0.0097886465
     86      H   -0.0928310785    0.0089864495   -0.0099685933
     87      H   -0.0912576856   -0.0142733279   -0.0022250162
     88      H    0.0931668228   -0.0100435026   -0.0003084083
     89      H    0.0099725562    0.0917027929    0.0074487426
     90      H   -0.0456411856   -0.0460215808    0.0616409630
     91      H   -0.1056282081    0.0996834189    0.0042756930
     92      H    0.1056053076   -0.0983531668    0.0165362132
     93      H   -0.0090197583   -0.0918764828    0.0011007435
     94      H   -0.0267767571   -0.0601496469   -0.0316394540
     95      H    0.0372216333    0.0479221001    0.0648610027
     96      H   -0.0508864902    0.0423097401    0.0604778796
     97      H   -0.0602638831    0.0324491295    0.0565880585
     98      H    0.0800810831   -0.0352240725   -0.0152710011
     99      H    0.0373866607    0.0760973099    0.0287005063
    100      C    0.1842173158    0.1185633918   -0.0501498120
    101      H   -0.0085886218    0.0405569000    0.0792655390
    102      H   -0.0039035393   -0.0485813935    0.0749178735
    103      H   -0.0500596237   -0.0123977681    0.0730498487
    104      H    0.0392006174   -0.0099734170    0.0798279941
    105      C   -0.0076445060    0.0699214370    0.0054952550
    106      C   -0.0580398146    0.0504022992    0.0135635293
    107      C   -0.0483765893   -0.0606804549    0.0031630449
    108      C    0.0042328249   -0.0610825874   -0.0061743593
    109      C    0.0604889777   -0.0451463268   -0.0152022749
    110      C    0.0473927385    0.0582370905   -0.0098925565
    111      H   -0.0808125650    0.0354460310    0.0148815552
    112      C   -0.0702696147   -0.0051860867   -0.0054457415
    113      C   -0.0506369860   -0.0373800134   -0.0448266755
    114      C    0.0586519482   -0.0285324303   -0.0413492857
    115      C    0.0608966976    0.0026951999    0.0019522169
    116      C    0.0472524830    0.0367498193    0.0491770779
    117      C   -0.0579107785    0.0308703366    0.0389310744
    118      H   -0.0371679195   -0.0480379035   -0.0657038620
    119      H    0.0524404095   -0.0420403491   -0.0597884634
    120      H   -0.0521920291    0.0685506542    0.0258541652
    121      H    0.0674160244   -0.0256859840   -0.0117470991
    122      H   -0.0522167665   -0.0550561545    0.0476791861
    123      H    0.0516945161    0.0566192428   -0.0469384780
    124      H   -0.0487984796    0.0231746972    0.0490756863
    125      H    0.0257192522    0.0388538857    0.0561631507
    126      H    0.0506685727   -0.0694665701   -0.0252706753
 
Coulomb Gradients (hartree/bohr)
  Index   Atom            d/dx            d/dy            d/dz
      1      C   -0.0003077153   -0.0001687938    0.0003775870
      2      C    0.0001894759   -0.0001785400    0.0004522791
      3      C   -0.0000860058   -0.0003090377    0.0003949061
      4      C   -0.0000343259    0.0001779973    0.0004645880
      5      C   -0.0002895741    0.0002132791    0.0002996352
      6      C    0.0002441295    0.0002551493    0.0004090419
      7      C   -0.0004770000   -0.0004792046    0.0003827306
      8      C   -0.0004970326    0.0003811782    0.0005013360
      9      C    0.0003098492    0.0004768382    0.0000298428
     10      C   -0.0002009666    0.0002793209    0.0000049008
     11      C   -0.0003461914    0.0004022431    0.0001968148
     12      C   -0.0003036748   -0.0005096023   -0.0000934648
     13      C   -0.0002204280   -0.0001081895    0.0001633133
     14      C   -0.0004083262    0.0002849509    0.0003128518
     15      C    0.0004786027    0.0003441382   -0.0000141391
     16      C   -0.0002264624    0.0000000598   -0.0000122817
     17      C   -0.0004889589   -0.0003486270    0.0000492311
     18      C   -0.0012604621    0.0000383349   -0.0001660892
     19      C    0.0003474518    0.0004575830    0.0002131818
     20      C    0.0000130602   -0.0002244338   -0.0000186991
     21      C    0.0002877722   -0.0001841073    0.0000845258
     22      C   -0.0021939091    0.0013683676    0.0000042881
     23      C    0.0000960926    0.0000369683    0.0000157635
     24      C    0.0000217757    0.0001005746    0.0000117125
     25      C    0.0012453207   -0.0000492271   -0.0000393784
     26      C    0.0014837008   -0.0021138209    0.0001023074
     27      C    0.0001863723   -0.0002732094    0.0001369190
     28      C    0.0004173115    0.0003793988    0.0003855778
     29      C   -0.0002874557    0.0001856616   -0.0000066420
     30      C    0.0001118780   -0.0013269425   -0.0000129972
     31      C    0.0021560939   -0.0013960575    0.0002414961
     32      C   -0.0001187046    0.0012556210   -0.0000818902
     33      C   -0.0000043953    0.0002282188   -0.0000113356
     34      C   -0.0014736278    0.0021349702   -0.0000248298
     35      C   -0.0003499516    0.0004433686    0.0003195531
     36      C    0.0002204368    0.0000042274   -0.0000115277
     37      C   -0.0004325022    0.0006617718    0.0010970269
     38      C    0.0001591784    0.0000084736    0.0000050393
     39      C    0.0000149033   -0.0001587282   -0.0000137522
     40      C   -0.0000450548    0.0000618436    0.0000551785
     41      H   -0.0001732060    0.0000638572    0.0003905786
     42      C   -0.0008279562   -0.0004695053    0.0009685949
     43      C   -0.0000146784   -0.0000977715    0.0000006309
     44      C   -0.0000936864   -0.0000373936   -0.0000007151
     45      C   -0.0000665500   -0.0000554087   -0.0000357872
     46      C    0.0004042729   -0.0010848538   -0.0006831518
     47      C    0.0004659978   -0.0004471813   -0.0000360697
     48      C    0.0003397527    0.0003721580   -0.0002637258
     49      C    0.0003788652   -0.0003160438   -0.0003700387
     50      C   -0.0003101077   -0.0004439688   -0.0002115434
     51      C   -0.0003924109   -0.0005119396   -0.0001724619
     52      C    0.0000980417   -0.0002638369   -0.0000828251
     53      C    0.0000414112   -0.0002353987   -0.0004504338
     54      C    0.0005059689   -0.0001020930   -0.0005941101
     55      C    0.0001602376    0.0004891672   -0.0005701115
     56      C   -0.0002243797   -0.0000151135   -0.0004650703
     57      C    0.0003211003    0.0003178680   -0.0003222284
     58      C    0.0002894138   -0.0000636888   -0.0004036345
     59      C    0.0003122201   -0.0001912686   -0.0003789884
     60      C   -0.0002145566   -0.0000480531   -0.0004862246
     61      N   -0.0018117380   -0.0018947890   -0.0000960171
     62      N    0.0004605039   -0.0004440611   -0.0000341646
     63      N   -0.0004533512    0.0004321412   -0.0001503369
     64      N    0.0000784390   -0.0008551613   -0.0012677103
     65      N    0.0018739218    0.0019416084   -0.0002114459
     66      N    0.0009819506    0.0000923640   -0.0010837675
     67      N   -0.0014341987   -0.0000405976    0.0002880009
     68      N   -0.0000603883    0.0013186205    0.0007678946
     69      H    0.0003523970    0.0002540660   -0.0001186230
     70      H    0.0000571947    0.0001077814    0.0005185951
     71      H    0.0002036424    0.0001284562   -0.0003726503
     72      H   -0.0000380239    0.0001222122   -0.0005154818
     73      H    0.0000905371    0.0002047029   -0.0003865366
     74      H    0.0000482409   -0.0000371150   -0.0005305167
     75      H    0.0002423568   -0.0000771596   -0.0003167167
     76      H   -0.0001513134   -0.0002038907   -0.0003863892
     77      H    0.0003822931    0.0003015352   -0.0002995611
     78      H    0.0003041685   -0.0002747383   -0.0004123125
     79      H   -0.0004509801    0.0001620208    0.0000694086
     80      H    0.0001303530   -0.0005146988   -0.0000219319
     81      H   -0.0003467630    0.0000513575    0.0004187087
     82      H    0.0003537273   -0.0001775716   -0.0002176619
     83      H   -0.0002645719   -0.0003061889   -0.0001472336
     84      H    0.0006520370    0.0001087246    0.0001202061
     85      H   -0.0001438516    0.0005209683    0.0000184137
     86      H   -0.0005508399    0.0000910057   -0.0000505434
     87      H   -0.0006559638   -0.0000980966    0.0000408218
     88      H    0.0005645216   -0.0000933896   -0.0000606456
     89      H    0.0000692557    0.0007061839   -0.0000039270
     90      H   -0.0002795122   -0.0001982555    0.0002889098
     91      H    0.0003224079   -0.0002439380    0.0000803331
     92      H   -0.0003553313    0.0002241011    0.0001761991
     93      H   -0.0000586410   -0.0006835307    0.0000576850
     94      H    0.0000870762   -0.0001413165   -0.0001082738
     95      H    0.0002643461    0.0001994622    0.0002771166
     96      H   -0.0002377119    0.0002742441    0.0002599850
     97      H   -0.0002544758    0.0002431077    0.0002533133
     98      H    0.0003395431   -0.0002537513   -0.0000810151
     99      H    0.0001964615    0.0003382089    0.0002151811
    100      C    0.0012359818    0.0004276542   -0.0003284522
    101      H   -0.0000213773    0.0001382035    0.0004278473
    102      H   -0.0001428112   -0.0003186548    0.0004575990
    103      H   -0.0003232720    0.0000686156    0.0004796740
    104      H    0.0001261457    0.0000033959    0.0004364270
    105      C   -0.0000107762    0.0001587511    0.0000140044
    106      C    0.0004845353   -0.0002969914   -0.0001442736
    107      C    0.0002743455    0.0000990934   -0.0000381411
    108      C    0.0000665485   -0.0000649018   -0.0000198654
    109      C   -0.0005039872    0.0003325161    0.0001160588
    110      C   -0.0004316087   -0.0003614475    0.0000893424
    111      H   -0.0003797766    0.0001792582    0.0001587276
    112      C   -0.0001593811   -0.0000107929   -0.0000057630
    113      C    0.0003096632    0.0003311294    0.0003647583
    114      C   -0.0000957680    0.0001736074    0.0002122247
    115      C    0.0000658954    0.0000355078    0.0000567563
    116      C   -0.0003464910   -0.0003003919   -0.0004097543
    117      C    0.0003476714   -0.0002836357   -0.0003452955
    118      H   -0.0001980323   -0.0002983760   -0.0002669477
    119      H   -0.0001687041   -0.0002740717   -0.0003403753
    120      H    0.0001651808    0.0004175267    0.0001265871
    121      H    0.0001689542    0.0000887693   -0.0000697713
    122      H   -0.0003162677   -0.0002547284    0.0001891147
    123      H    0.0003638819   -0.0001477387   -0.0002863248
    124      H   -0.0000986970   -0.0000929372    0.0001511400
    125      H   -0.0000877907    0.0000735650    0.0001614785
    126      H    0.0002377876   -0.0003190968   -0.0002013710
 
Repulsion Gradients (hartree/bohr)
  Index   Atom            d/dx            d/dy            d/dz
      1      C   -0.0528329803   -0.0122215472    0.0527208625
      2      C    0.0461684292   -0.0009962756    0.0595858517
      3      C   -0.0029725679   -0.0533882758    0.0550003763
      4      C   -0.0110145376    0.0489568071    0.0568098097
      5      C   -0.0386039184    0.0483022845    0.0399154860
      6      C    0.0439517205    0.0196932970    0.0568157964
      7      C   -0.0340974928   -0.0528792420    0.0404913612
      8      C   -0.0526265449    0.0166034656    0.0499218191
      9      C    0.0351903913    0.1035548137    0.0032113376
     10      C    0.0086608125    0.0567768097    0.0048982775
     11      C   -0.0566628257    0.0453499680    0.0204219263
     12      C   -0.0376238135   -0.1032943662    0.0029828704
     13      C   -0.0347248700   -0.0620203095    0.0302438643
     14      C   -0.0466233829    0.0476625938    0.0395575426
     15      C    0.1019095520    0.0419477360    0.0061225977
     16      C   -0.0005401437    0.0665566038   -0.0035158080
     17      C   -0.1011312254   -0.0419983212    0.0006293571
     18      C   -0.1147722098    0.0759382307   -0.0064443329
     19      C    0.0465307351    0.0557997515    0.0243948410
     20      C    0.0652937636    0.0033829495    0.0008660818
     21      C    0.0535566570    0.0138384716    0.0065617375
     22      C    0.0664513773    0.0205624993   -0.0057970279
     23      C   -0.0901556902   -0.0028203368   -0.0062150036
     24      C    0.0040745094   -0.0906200299   -0.0051410777
     25      C    0.1148052081   -0.0754439985    0.0026647805
     26      C    0.0169233542    0.0664042179   -0.0070379645
     27      C   -0.0118707663   -0.0614365108    0.0006428584
     28      C    0.0128186680   -0.0071202406   -0.0053854971
     29      C   -0.0581225488   -0.0130631923    0.0073942546
     30      C    0.0825172639   -0.1107799467    0.0031209066
     31      C   -0.0634219147   -0.0169497704   -0.0116378275
     32      C   -0.0811225515    0.1107015016   -0.0051253860
     33      C   -0.0620205602   -0.0039477359   -0.0015981719
     34      C   -0.0118350016   -0.0699039822   -0.0029012511
     35      C    0.0090142534    0.0110228693   -0.0057822698
     36      C   -0.0006038945   -0.0542011468    0.0016491421
     37      C    0.1198272577   -0.1002669089   -0.1631743003
     38      C   -0.0704303485   -0.0063191839   -0.0031363917
     39      C   -0.0062140010    0.0697124064    0.0090295388
     40      C    0.0039260577   -0.0614950546   -0.0067623211
     41      H    0.0489036598   -0.0202753750   -0.0730958131
     42      C    0.1252136468    0.1260667102   -0.1424005279
     43      C   -0.0058441740    0.0798515953   -0.0022965642
     44      C    0.0878968091    0.0031306789    0.0028430963
     45      C    0.0619065178    0.0031828823    0.0021774488
     46      C   -0.1181018739    0.1650505690    0.1030703572
     47      C   -0.0097272536   -0.0096083653    0.0017663236
     48      C    0.0360429344    0.0594052071   -0.0281382755
     49      C    0.0456473114   -0.0427595934   -0.0445189417
     50      C   -0.0509622275   -0.0529738458   -0.0230714360
     51      C   -0.0120487477    0.0092897299    0.0013782952
     52      C    0.0587315284   -0.0469757243   -0.0177897440
     53      C    0.0084860304   -0.0419795572   -0.0606483039
     54      C    0.0543408945    0.0054338562   -0.0504142849
     55      C    0.0063362914    0.0525520510   -0.0512386598
     56      C   -0.0419514333    0.0091207350   -0.0614422094
     57      C    0.0315659659    0.0545121106   -0.0433108471
     58      C    0.0523728805   -0.0143836038   -0.0525174142
     59      C    0.0409599773   -0.0525405735   -0.0381442193
     60      C   -0.0483582596   -0.0216095050   -0.0539316984
     61      N   -0.1579544087   -0.1666205688   -0.0017465887
     62      N    0.0489135536   -0.0454818459    0.0010814842
     63      N   -0.0474028607    0.0454720867   -0.0064192727
     64      N   -0.0485155460    0.1404481782    0.2287517208
     65      N    0.1549002967    0.1655666268    0.0195497898
     66      N   -0.1774303890   -0.0541881035    0.1956079688
     67      N    0.2584611568    0.0440973627   -0.0599432645
     68      N    0.0438889429   -0.2295969401   -0.1402754434
     69      H   -0.0726520180   -0.0525312429    0.0090906587
     70      H   -0.0414268815   -0.0228964895   -0.0773884607
     71      H   -0.0508304239   -0.0114040391    0.0737610082
     72      H    0.0393429477   -0.0089068256    0.0811976098
     73      H   -0.0059720293   -0.0496182417    0.0753909214
     74      H   -0.0089861305    0.0409878207    0.0805383613
     75      H   -0.0504462713    0.0433048020    0.0605973192
     76      H    0.0410317364    0.0224284172    0.0768786803
     77      H   -0.0455843648   -0.0457935421    0.0629006110
     78      H   -0.0486183698    0.0182949469    0.0736964348
     79      H    0.0718612101    0.0536514287   -0.0096664644
     80      H   -0.0156278921    0.0931719526    0.0014836423
     81      H    0.0520556788   -0.0439811238   -0.0598707009
     82      H   -0.0611557825    0.0325371644    0.0576443458
     83      H    0.0376930830    0.0755040478    0.0294034731
     84      H   -0.0915869332   -0.0145326212   -0.0095917719
     85      H    0.0168730870   -0.0927431530    0.0099680643
     86      H    0.0934757398   -0.0093859777    0.0100993260
     87      H    0.0918836547    0.0145989171    0.0020676940
     88      H   -0.0937666424    0.0104454101    0.0003949902
     89      H   -0.0102894493   -0.0923155957   -0.0075043445
     90      H    0.0461176884    0.0460109486   -0.0621224573
     91      H    0.1053489730   -0.0993770712   -0.0043571057
     92      H   -0.1052306728    0.0980452743   -0.0167147921
     93      H    0.0093800879    0.0924864053   -0.0011869742
     94      H    0.0266733147    0.0604558625    0.0317177419
     95      H   -0.0374950460   -0.0482715048   -0.0652070930
     96      H    0.0510733959   -0.0426478067   -0.0609166270
     97      H    0.0606121923   -0.0327104834   -0.0568270228
     98      H   -0.0804361545    0.0355422013    0.0154211490
     99      H   -0.0375115811   -0.0765447444   -0.0290932938
    100      C   -0.1853287943   -0.1188125947    0.0504345399
    101      H    0.0087173183   -0.0405223248   -0.0799028432
    102      H    0.0041060090    0.0488664252   -0.0755339146
    103      H    0.0503653942    0.0126148965   -0.0737221421
    104      H   -0.0391874526    0.0101460199   -0.0805911390
    105      C    0.0075973975   -0.0699343181   -0.0055693838
    106      C    0.0576980275   -0.0501517129   -0.0136056853
    107      C    0.0482122133    0.0607169950   -0.0032197847
    108      C   -0.0043000183    0.0610431398    0.0062004992
    109      C   -0.0600990629    0.0449413587    0.0150867209
    110      C   -0.0470671416   -0.0578414444    0.0097165330
    111      H    0.0813141534   -0.0354995957   -0.0151955175
    112      C    0.0703081354    0.0051906045    0.0054327540
    113      C    0.0502483187    0.0371212367    0.0445281431
    114      C   -0.0584918219    0.0284083578    0.0411847091
    115      C   -0.0608846553   -0.0027514345   -0.0019790647
    116      C   -0.0468888895   -0.0365310524   -0.0488663421
    117      C    0.0574799948   -0.0306236530   -0.0386765694
    118      H    0.0372884439    0.0484750501    0.0660988995
    119      H   -0.0522107780    0.0424708193    0.0602443042
    120      H    0.0519783063   -0.0690511948   -0.0262463345
    121      H   -0.0676273268    0.0254722194    0.0118838213
    122      H    0.0526934576    0.0552489488   -0.0480135750
    123      H   -0.0522578486   -0.0563324280    0.0473319085
    124      H    0.0491053010   -0.0231068821   -0.0490083781
    125      H   -0.0256073936   -0.0390443173   -0.0563710749
    126      H   -0.0508348791    0.0698940645    0.0256723706
 
Dispersion Gradients (hartree/bohr)
  Index   Atom            d/dx            d/dy            d/dz
      1      C   -0.0002732213   -0.0000184113   -0.0002714405
      2      C   -0.0000850006   -0.0000304128   -0.0002341354
      3      C    0.0000123062   -0.0002777495   -0.0002647904
      4      C    0.0000304994   -0.0000873588   -0.0002186743
      5      C    0.0000298917    0.0002279177   -0.0001937679
      6      C    0.0002452319    0.0000184530   -0.0002209718
      7      C   -0.0000025140    0.0000495240   -0.0001606093
      8      C    0.0000454344    0.0000519394   -0.0001550730
      9      C    0.0002894670    0.0007247845    0.0000376796
     10      C    0.0012625314    0.0006829388    0.0000182678
     11      C   -0.0001168622   -0.0001601561   -0.0000479300
     12      C   -0.0002407326   -0.0007517920   -0.0000282699
     13      C    0.0000802297   -0.0000068070   -0.0000767482
     14      C    0.0000846539    0.0001250028   -0.0000998690
     15      C    0.0007005655    0.0003090846    0.0000448945
     16      C   -0.0000290898   -0.0000773387    0.0000066712
     17      C   -0.0007220844   -0.0003265503    0.0000259300
     18      C   -0.0008561862    0.0002257981   -0.0000687647
     19      C   -0.0000218626   -0.0001562969   -0.0000540346
     20      C   -0.0000773932   -0.0000312294    0.0000060912
     21      C    0.0005882608    0.0013052451   -0.0000158845
     22      C    0.0011402677   -0.0019187952    0.0000640041
     23      C   -0.0000103028   -0.0000014026   -0.0000014099
     24      C    0.0000040727   -0.0000158673   -0.0000025398
     25      C    0.0008766525   -0.0002556514    0.0000261646
     26      C   -0.0019759288    0.0010367424   -0.0000446347
     27      C   -0.0012177394   -0.0006644912   -0.0000972801
     28      C   -0.0000526136    0.0000017788   -0.0000068448
     29      C   -0.0006000225   -0.0012961447   -0.0000048639
     30      C    0.0002489962   -0.0008512450    0.0000395150
     31      C   -0.0010902246    0.0018760395   -0.0000352301
     32      C   -0.0003025324    0.0008576597   -0.0000084033
     33      C    0.0000774095    0.0000320790    0.0000000905
     34      C    0.0018979148   -0.0009963424    0.0001561081
     35      C   -0.0000024885   -0.0000330979   -0.0000062819
     36      C    0.0000278221    0.0000772085    0.0000025667
     37      C    0.0000806012    0.0000660933    0.0000514392
     38      C   -0.0001417859   -0.0000093195   -0.0000104791
     39      C   -0.0000141292    0.0001414491    0.0000118615
     40      C   -0.0000189360   -0.0000713103    0.0000110536
     41      H    0.0000826245    0.0000132910    0.0003402106
     42      C   -0.0000775787    0.0000604595    0.0000564336
     43      C   -0.0000136034    0.0000131553    0.0000014939
     44      C    0.0000119007    0.0000056652    0.0000015825
     45      C    0.0000752954   -0.0000241270   -0.0000040156
     46      C   -0.0000749086   -0.0000837425   -0.0000197615
     47      C    0.0000009421    0.0000316168   -0.0000008858
     48      C   -0.0001110175    0.0001083247    0.0001315848
     49      C   -0.0001157761    0.0000125096    0.0001229775
     50      C   -0.0001182288    0.0001366093    0.0000215478
     51      C    0.0000452146   -0.0000035210    0.0000081803
     52      C    0.0000102562    0.0001158842    0.0000211693
     53      C    0.0000179031   -0.0002562880    0.0002433754
     54      C   -0.0000423710   -0.0000498402    0.0001307523
     55      C    0.0000442645   -0.0000341008    0.0001514702
     56      C   -0.0002563822   -0.0000223422    0.0002214911
     57      C   -0.0000638592    0.0002619181    0.0001786701
     58      C    0.0002724708    0.0000252038    0.0002443166
     59      C   -0.0000970770    0.0001204882    0.0001635388
     60      C    0.0000972166    0.0000525319    0.0002120347
     61      N   -0.0003839466   -0.0004064625    0.0000313835
     62      N    0.0003965745   -0.0003750709   -0.0000083658
     63      N   -0.0003989603    0.0003721421   -0.0000478897
     64      N   -0.0000147339   -0.0000325094   -0.0000885360
     65      N    0.0003815541    0.0004035985    0.0000398327
     66      N    0.0000428306   -0.0000182591   -0.0000679856
     67      N   -0.0000799632    0.0000183913    0.0000183287
     68      N    0.0000172648    0.0000631933    0.0000615145
     69      H    0.0002516151   -0.0000226217   -0.0000307485
     70      H    0.0000465016    0.0000699659    0.0002367074
     71      H   -0.0000658842   -0.0000129860   -0.0003502901
     72      H   -0.0000376643    0.0000159720   -0.0002471464
     73      H    0.0000010631   -0.0000756242   -0.0003479844
     74      H    0.0000279083   -0.0000370298   -0.0002439081
     75      H    0.0000936052    0.0001041902   -0.0002953444
     76      H    0.0000988715   -0.0000058354   -0.0003332124
     77      H    0.0001175528   -0.0000037754   -0.0002173321
     78      H   -0.0000034519   -0.0000253887   -0.0002483842
     79      H   -0.0002279454    0.0000077458    0.0000195837
     80      H    0.0003274938   -0.0000430392    0.0000116185
     81      H   -0.0001505097    0.0000565553    0.0001885460
     82      H    0.0001628463    0.0000775022   -0.0001775979
     83      H   -0.0000150342   -0.0002184743   -0.0000844121
     84      H    0.0000427151    0.0003130423    0.0000049319
     85      H   -0.0002858901    0.0000359700   -0.0000890118
     86      H   -0.0000594387    0.0003179766   -0.0000139015
     87      H   -0.0000435435   -0.0003272270    0.0000055531
     88      H    0.0000561060   -0.0003137853    0.0000123490
     89      H    0.0002813567    0.0000616533    0.0000901639
     90      H   -0.0000962244    0.0001131084    0.0002918355
     91      H    0.0000331084   -0.0000317289    0.0000028143
     92      H   -0.0000324547    0.0000320630    0.0000258708
     93      H   -0.0003254448   -0.0000602462    0.0000042817
     94      H    0.0000124188   -0.0001443738   -0.0000467294
     95      H    0.0000130747    0.0001390345    0.0001877073
     96      H    0.0000279749    0.0001329564    0.0002149654
     97      H   -0.0001713470    0.0000016067    0.0001607994
     98      H    0.0002302935   -0.0000088477   -0.0000443382
     99      H   -0.0000640638    0.0002366909    0.0000633202
    100      C    0.0000874106   -0.0000662756   -0.0000128396
    101      H    0.0000026420   -0.0000870076    0.0003386652
    102      H    0.0000086247    0.0000038350    0.0002471896
    103      H    0.0000013095   -0.0000627329    0.0002368461
    104      H   -0.0001009670    0.0000003976    0.0003347651
    105      C    0.0000124242   -0.0001405455   -0.0000213828
    106      C   -0.0001369735   -0.0001165022   -0.0000200829
[...]
     84      H    0.0891206001        0.910879
     85      H    0.1016466244        0.898353
     86      H    0.1005282601        0.899472
     87      H    0.0891151225        0.910885
     88      H    0.0999675224        0.900032
     89      H    0.0877208053        0.912279
     90      H    0.0750923408        0.924908
     91      H    0.2374057703        0.762594
     92      H    0.2371705236        0.762829
     93      H    0.0881927251        0.911807
     94      H    0.0367369262        0.963263
     95      H    0.0721960992        0.927804
     96      H    0.0756359279        0.924364
     97      H    0.0722199470        0.927780
     98      H    0.0722887815        0.927711
     99      H    0.0753416359        0.924658
    100      C    0.1149806607        3.885019
    101      H    0.0760487710        0.923951
    102      H    0.0764283851        0.923572
    103      H    0.0764797197        0.923520
    104      H    0.0760151578        0.923985
    105      C    0.0420769138        3.957923
    106      C   -0.0939521509        4.093952
    107      C   -0.0673097137        4.067310
    108      C    0.0186324445        3.981368
    109      C   -0.0865902611        4.086590
    110      C   -0.0902019668        4.090202
    111      H    0.0751819432        0.924818
    112      C    0.0422411574        3.957759
    113      C   -0.0936847542        4.093685
    114      C   -0.0669848086        4.066985
    115      C    0.0185733316        3.981427
    116      C   -0.0866447917        4.086645
    117      C   -0.0902395892        4.090240
    118      H    0.0752985005        0.924701
    119      H    0.0864717594        0.913528
    120      H    0.0862838258        0.913716
    121      H    0.0370697060        0.962930
    122      H    0.0754495700        0.924550
    123      H    0.0862095995        0.913790
    124      H    0.0368711326        0.963129
    125      H    0.0359321059        0.964068
    126      H    0.0756357272        0.924364
         Total    0.0000000000      374.000000
 



 ===================================
 B A N D   E N E R G Y   R A N G E S
 ===================================
  
 The energies below are in Hartree.
 =================================================
       band          min          max   occupation
 =================================================
          1     -0.80059     -0.80059      2.00000
          2     -0.79919     -0.79919      2.00000
          3     -0.76824     -0.76824      2.00000
          4     -0.76771     -0.76771      2.00000
          5     -0.76735     -0.76735      2.00000
          6     -0.76729     -0.76729      2.00000
          7     -0.74762     -0.74762      2.00000
          8     -0.74424     -0.74424      2.00000
          9     -0.71676     -0.71676      2.00000
         10     -0.71595     -0.71595      2.00000
         11     -0.70081     -0.70081      2.00000
         12     -0.70019     -0.70019      2.00000
         13     -0.69881     -0.69881      2.00000
         14     -0.69230     -0.69230      2.00000
         15     -0.69105     -0.69105      2.00000
         16     -0.69021     -0.69021      2.00000
         17     -0.66564     -0.66564      2.00000
         18     -0.65510     -0.65510      2.00000
         19     -0.65100     -0.65100      2.00000
         20     -0.64903     -0.64903      2.00000
         21     -0.64826     -0.64826      2.00000
         22     -0.64269     -0.64269      2.00000
         23     -0.63620     -0.63620      2.00000
         24     -0.62558     -0.62558      2.00000
         25     -0.62476     -0.62476      2.00000
         26     -0.62293     -0.62293      2.00000
         27     -0.62019     -0.62019      2.00000
         28     -0.61937     -0.61937      2.00000
         29     -0.61922     -0.61922      2.00000
         30     -0.61504     -0.61504      2.00000
         31     -0.61400     -0.61400      2.00000
         32     -0.61357     -0.61357      2.00000
         33     -0.61330     -0.61330      2.00000
         34     -0.61297     -0.61297      2.00000
         35     -0.61162     -0.61162      2.00000
         36     -0.61012     -0.61012      2.00000
         37     -0.60048     -0.60048      2.00000
         38     -0.58974     -0.58974      2.00000
         39     -0.58441     -0.58441      2.00000
         40     -0.58029     -0.58029      2.00000
         41     -0.57510     -0.57510      2.00000
         42     -0.54486     -0.54486      2.00000
         43     -0.53826     -0.53826      2.00000
         44     -0.53816     -0.53816      2.00000
         45     -0.53234     -0.53234      2.00000
         46     -0.51516     -0.51516      2.00000
         47     -0.51290     -0.51290      2.00000
         48     -0.50749     -0.50749      2.00000
         49     -0.50663     -0.50663      2.00000
         50     -0.50185     -0.50185      2.00000
         51     -0.49563     -0.49563      2.00000
         52     -0.49195     -0.49195      2.00000
         53     -0.48979     -0.48979      2.00000
         54     -0.48956     -0.48956      2.00000
         55     -0.48928     -0.48928      2.00000
         56     -0.48683     -0.48683      2.00000
         57     -0.48458     -0.48458      2.00000
         58     -0.47964     -0.47964      2.00000
         59     -0.47705     -0.47705      2.00000
         60     -0.47587     -0.47587      2.00000
         61     -0.47506     -0.47506      2.00000
         62     -0.46474     -0.46474      2.00000
         63     -0.46267     -0.46267      2.00000
         64     -0.46136     -0.46136      2.00000
         65     -0.45131     -0.45131      2.00000
         66     -0.44934     -0.44934      2.00000
         67     -0.44743     -0.44743      2.00000
         68     -0.44642     -0.44642      2.00000
         69     -0.44511     -0.44511      2.00000
         70     -0.43059     -0.43059      2.00000
         71     -0.42934     -0.42934      2.00000
         72     -0.41348     -0.41348      2.00000
         73     -0.41095     -0.41095      2.00000
         74     -0.41025     -0.41025      2.00000
         75     -0.40792     -0.40792      2.00000
         76     -0.40720     -0.40720      2.00000
         77     -0.40426     -0.40426      2.00000
         78     -0.40307     -0.40307      2.00000
         79     -0.39815     -0.39815      2.00000
         80     -0.39098     -0.39098      2.00000
         81     -0.39035     -0.39035      2.00000
         82     -0.38996     -0.38996      2.00000
         83     -0.38919     -0.38919      2.00000
         84     -0.38315     -0.38315      2.00000
         85     -0.38117     -0.38117      2.00000
         86     -0.37986     -0.37986      2.00000
         87     -0.37859     -0.37859      2.00000
         88     -0.37738     -0.37738      2.00000
         89     -0.37246     -0.37246      2.00000
         90     -0.37155     -0.37155      2.00000
         91     -0.36965     -0.36965      2.00000
         92     -0.36616     -0.36616      2.00000
         93     -0.36565     -0.36565      2.00000
         94     -0.36480     -0.36480      2.00000
         95     -0.36297     -0.36297      2.00000
         96     -0.36232     -0.36232      2.00000
         97     -0.36028     -0.36028      2.00000
         98     -0.35954     -0.35954      2.00000
         99     -0.35866     -0.35866      2.00000
        100     -0.35818     -0.35818      2.00000
        101     -0.35697     -0.35697      2.00000
        102     -0.35321     -0.35321      2.00000
        103     -0.35234     -0.35234      2.00000
        104     -0.34982     -0.34982      2.00000
        105     -0.34942     -0.34942      2.00000
        106     -0.34824     -0.34824      2.00000
        107     -0.34741     -0.34741      2.00000
        108     -0.34461     -0.34461      2.00000
        109     -0.34416     -0.34416      2.00000
        110     -0.34264     -0.34264      2.00000
        111     -0.34209     -0.34209      2.00000
        112     -0.34081     -0.34081      2.00000
        113     -0.33997     -0.33997      2.00000
        114     -0.33917     -0.33917      2.00000
        115     -0.33852     -0.33852      2.00000
        116     -0.33552     -0.33552      2.00000
        117     -0.33490     -0.33490      2.00000
        118     -0.33390     -0.33390      2.00000
        119     -0.33334     -0.33334      2.00000
        120     -0.33144     -0.33144      2.00000
        121     -0.33136     -0.33136      2.00000
        122     -0.33107     -0.33107      2.00000
        123     -0.33009     -0.33009      2.00000
        124     -0.32945     -0.32945      2.00000
        125     -0.32927     -0.32927      2.00000
        126     -0.32914     -0.32914      2.00000
        127     -0.32742     -0.32742      2.00000
        128     -0.32427     -0.32427      2.00000
        129     -0.32393     -0.32393      2.00000
        130     -0.32242     -0.32242      2.00000
        131     -0.32117     -0.32117      2.00000
        132     -0.31760     -0.31760      2.00000
        133     -0.31114     -0.31114      2.00000
        134     -0.30925     -0.30925      2.00000
        135     -0.30921     -0.30921      2.00000
        136     -0.30703     -0.30703      2.00000
        137     -0.30293     -0.30293      2.00000
        138     -0.30194     -0.30194      2.00000
        139     -0.29926     -0.29926      2.00000
        140     -0.29682     -0.29682      2.00000
        141     -0.29631     -0.29631      2.00000
        142     -0.29426     -0.29426      2.00000
        143     -0.29268     -0.29268      2.00000
        144     -0.29156     -0.29156      2.00000
        145     -0.29062     -0.29062      2.00000
        146     -0.29005     -0.29005      2.00000
        147     -0.28825     -0.28825      2.00000
        148     -0.28461     -0.28461      2.00000
        149     -0.28384     -0.28384      2.00000
        150     -0.28219     -0.28219      2.00000
        151     -0.28164     -0.28164      2.00000
        152     -0.28104     -0.28104      2.00000
        153     -0.27909     -0.27909      2.00000
        154     -0.27786     -0.27786      2.00000
        155     -0.27728     -0.27728      2.00000
        156     -0.27658     -0.27658      2.00000
        157     -0.27232     -0.27232      2.00000
        158     -0.26398     -0.26398      2.00000
        159     -0.26327     -0.26327      2.00000
        160     -0.25637     -0.25637      2.00000
        161     -0.25600     -0.25600      2.00000
        162     -0.25536     -0.25536      2.00000
        163     -0.25521     -0.25521      2.00000
        164     -0.25448     -0.25448      2.00000
        165     -0.25106     -0.25106      2.00000
        166     -0.24949     -0.24949      2.00000
        167     -0.24920     -0.24920      2.00000
        168     -0.24748     -0.24748      2.00000
        169     -0.24618     -0.24618      2.00000
        170     -0.24596     -0.24596      2.00000
        171     -0.24518     -0.24518      2.00000
        172     -0.24493     -0.24493      2.00000
        173     -0.24041     -0.24041      2.00000
        174     -0.23712     -0.23712      2.00000
        175     -0.23510     -0.23510      2.00000
        176     -0.22528     -0.22528      2.00000
        177     -0.22379     -0.22379      2.00000
        178     -0.22350     -0.22350      2.00000
        179     -0.22327     -0.22327      2.00000
        180     -0.22074     -0.22074      2.00000
        181     -0.21782     -0.21782      2.00000
        182     -0.21240     -0.21240      2.00000
        183     -0.21107     -0.21107      2.00000
        184     -0.20828     -0.20828      2.00000
        185     -0.20747     -0.20747      2.00000
        186     -0.18973     -0.18973      2.00000
        187     -0.17618     -0.17618      2.00000
        188     -0.11993     -0.11993      0.00000
        189     -0.11575     -0.11575      0.00000
        190     -0.11196     -0.11196      0.00000
        191     -0.11138     -0.11138      0.00000
        192     -0.09030     -0.09030      0.00000
        193     -0.08920     -0.08920      0.00000
        194     -0.07557     -0.07557      0.00000
        195     -0.05687     -0.05687      0.00000
        196     -0.05600     -0.05600      0.00000
        197     -0.05564     -0.05564      0.00000
        198     -0.05478     -0.05478      0.00000
        199     -0.04788     -0.04788      0.00000
        200     -0.04787     -0.04787      0.00000
        201     -0.04761     -0.04761      0.00000
        202     -0.04712     -0.04712      0.00000
        203     -0.04641     -0.04641      0.00000
        204     -0.04614     -0.04614      0.00000
        205     -0.02772     -0.02772      0.00000
        206     -0.02661     -0.02661      0.00000
        207     -0.00549     -0.00549      0.00000
        208     -0.00401     -0.00401      0.00000
        209      0.00451      0.00451      0.00000
        210      0.01835      0.01835      0.00000
        211      0.02147      0.02147      0.00000
        212      0.02175      0.02175      0.00000
        213      0.02285      0.02285      0.00000
        214      0.02937      0.02937      0.00000
        215      0.07993      0.07993      0.00000
        216      0.08452      0.08452      0.00000
        217      0.08599      0.08599      0.00000
        218      0.08873      0.08873      0.00000
        219      0.09189      0.09189      0.00000
        220      0.09555      0.09555      0.00000
        221      0.10261      0.10261      0.00000
        222      0.10399      0.10399      0.00000
        223      0.10625      0.10625      0.00000
        224      0.11251      0.11251      0.00000
        225      0.11778      0.11778      0.00000
        226      0.11901      0.11901      0.00000
        227      0.31251      0.31251      0.00000
        228      0.31272      0.31272      0.00000
        229      0.31417      0.31417      0.00000
        230      0.32105      0.32105      0.00000
        231      0.32261      0.32261      0.00000
        232      0.32567      0.32567      0.00000
        233      0.32604      0.32604      0.00000
        234      0.32808      0.32808      0.00000
        235      0.33467      0.33467      0.00000
        236      0.34039      0.34039      0.00000
        237      0.34538      0.34538      0.00000
        238      0.34651      0.34651      0.00000
        239      0.35220      0.35220      0.00000
        240      0.35381      0.35381      0.00000
        241      0.35420      0.35420      0.00000
        242      0.35439      0.35439      0.00000
        243      0.36295      0.36295      0.00000
        244      0.36499      0.36499      0.00000
        245      0.36721      0.36721      0.00000
        246      0.38217      0.38217      0.00000
        247      0.38537      0.38537      0.00000
        248      0.38831      0.38831      0.00000
        249      0.39002      0.39002      0.00000
        250      0.39189      0.39189      0.00000
        251      0.39635      0.39635      0.00000
        252      0.39723      0.39723      0.00000
        253      0.40556      0.40556      0.00000
        254      0.41127      0.41127      0.00000
        255      0.41593      0.41593      0.00000
        256      0.41780      0.41780      0.00000
        257      0.42106      0.42106      0.00000
        258      0.42589      0.42589      0.00000
        259      0.42802      0.42802      0.00000
        260      0.45068      0.45068      0.00000
        261      0.45517      0.45517      0.00000
        262      0.46049      0.46049      0.00000
        263      0.46067      0.46067      0.00000
        264      0.46556      0.46556      0.00000
        265      0.48422      0.48422      0.00000
        266      0.48892      0.48892      0.00000
        267      0.49623      0.49623      0.00000
        268      0.51871      0.51871      0.00000
        269      0.51943      0.51943      0.00000
        270      0.53365      0.53365      0.00000
        271      0.53852      0.53852      0.00000
        272      0.53856      0.53856      0.00000
        273      0.53869      0.53869      0.00000
        274      0.53923      0.53923      0.00000
        275      0.54075      0.54075      0.00000
        276      0.54137      0.54137      0.00000
        277      0.55725      0.55725      0.00000
        278      0.56402      0.56402      0.00000
        279      0.56612      0.56612      0.00000
        280      0.56987      0.56987      0.00000
        281      0.57646      0.57646      0.00000
        282      0.57751      0.57751      0.00000
        283      0.60723      0.60723      0.00000
        284      0.61223      0.61223      0.00000
        285      0.61804      0.61804      0.00000
        286      0.62106      0.62106      0.00000
        287      0.62159      0.62159      0.00000
        288      0.62679      0.62679      0.00000
        289      0.64036      0.64036      0.00000
        290      0.64520      0.64520      0.00000
        291      0.66797      0.66797      0.00000
        292      0.66819      0.66819      0.00000
        293      0.66890      0.66890      0.00000
        294      0.67167      0.67167      0.00000
        295      0.67429      0.67429      0.00000
        296      0.67930      0.67930      0.00000
        297      0.68036      0.68036      0.00000
        298      0.69125      0.69125      0.00000
        299      0.69168      0.69168      0.00000
        300      0.69525      0.69525      0.00000
        301      0.71472      0.71472      0.00000
        302      0.71739      0.71739      0.00000
        303      0.71755      0.71755      0.00000
        304      0.71781      0.71781      0.00000
        305      0.71838      0.71838      0.00000
        306      0.72338      0.72338      0.00000
        307      0.72555      0.72555      0.00000
        308      0.72657      0.72657      0.00000
        309      0.72809      0.72809      0.00000
        310      0.74254      0.74254      0.00000
        311      0.74507      0.74507      0.00000
        312      0.74561      0.74561      0.00000
        313      0.74697      0.74697      0.00000
        314      0.75706      0.75706      0.00000
        315      0.75847      0.75847      0.00000
        316      0.76223      0.76223      0.00000
        317      0.76518      0.76518      0.00000
        318      0.77920      0.77920      0.00000
        319      0.78380      0.78380      0.00000
        320      0.78900      0.78900      0.00000
        321      0.79531      0.79531      0.00000
        322      0.79683      0.79683      0.00000
        323      0.79859      0.79859      0.00000
        324      0.80338      0.80338      0.00000
        325      0.81247      0.81247      0.00000
        326      0.81453      0.81453      0.00000
        327      0.82013      0.82013      0.00000
        328      0.83091      0.83091      0.00000
        329      0.83217      0.83217      0.00000
        330      0.83605      0.83605      0.00000
        331      0.83787      0.83787      0.00000
        332      0.84389      0.84389      0.00000
        333      0.84472      0.84472      0.00000
 =================================================

AMS application finished. Exiting.
 NORMAL TERMINATION
     Total cpu time:     146.45
  Total system time:      17.89
 Total elapsed time:     174.74
